/*--------------------------------*- C++ -*----------------------------------*\
  =========                 |
  \\      /  F ield         | OpenFOAM: The Open Source CFD Toolbox
   \\    /   O peration     | Website:  https://openfoam.org
    \\  /    A nd           | Version:  9
     \\/     M anipulation  |
\*---------------------------------------------------------------------------*/
FoamFile
{
    format      ascii;
    class       polyBoundaryMesh;
    location    "constant/polyMesh";
    object      boundary;
}
// * * * * * * * * * * * * * * * * * * * * * * * * * * * * * * * * * * * * * //

3
(
    tank
    {
        type            wall;
        inGroups        List<word> 1(wall);
        nFaces          54484;
        startFace       3457726;
    }
    outlet
    {
        type            patch;
        nFaces          11236;
        startFace       3512210;
    }
    ball_external
    {
        type            patch;
        nFaces          4799;
        startFace       3523446;
    }
)

// ************************************************************************* //
